 Q-Chem 5.3, Q-Chem, Inc., Pleasanton, CA (2020)
 Q-Chem 5.3.2 for Intel X86 EM64T Linux

User input:
--------------------------------------------------------------
$rem
jobtype                    sp
method                     HF
basis                      6-31G*
sym_ignore                 true
resp_charges               true
chelpg                     true
esp_grid                   19734
$end

$molecule
0 1
H        2.84300000      -1.61200000       0.05000000
C        3.06000000      -0.54400000      -0.02800000
H        3.60300000      -0.35300000      -0.95900000
H        3.67400000      -0.23700000       0.82400000
N        1.78700000       0.15600000      -0.02200000
C        1.55600000       1.51400000      -0.07900000
H        2.38200000       2.21600000      -0.13500000
N        0.29100000       1.84500000      -0.05900000
C       -0.35900000       0.62400000       0.01600000
C       -1.72300000       0.26600000       0.06600000
N       -2.70700000       1.19400000       0.07000000
H       -3.66100000       0.88000000       0.00400000
H       -2.47700000       2.16200000      -0.08100000
N       -2.05200000      -1.03300000       0.12500000
C       -1.05800000      -1.93800000       0.14100000
H       -1.38300000      -2.97800000       0.19100000
N        0.25700000      -1.74100000       0.10300000
C        0.54500000      -0.43200000       0.03900000
$end
--------------------------------------------------------------

             Standard Nuclear Orientation (Angstroms)
    I     Atom           X                Y                Z
 ----------------------------------------------------------------
    1      H       2.8430000000    -1.6120000000     0.0500000000
    2      C       3.0600000000    -0.5440000000    -0.0280000000
    3      H       3.6030000000    -0.3530000000    -0.9590000000
    4      H       3.6740000000    -0.2370000000     0.8240000000
    5      N       1.7870000000     0.1560000000    -0.0220000000
    6      C       1.5560000000     1.5140000000    -0.0790000000
    7      H       2.3820000000     2.2160000000    -0.1350000000
    8      N       0.2910000000     1.8450000000    -0.0590000000
    9      C      -0.3590000000     0.6240000000     0.0160000000
   10      C      -1.7230000000     0.2660000000     0.0660000000
   11      N      -2.7070000000     1.1940000000     0.0700000000
   12      H      -3.6610000000     0.8800000000     0.0040000000
   13      H      -2.4770000000     2.1620000000    -0.0810000000
   14      N      -2.0520000000    -1.0330000000     0.1250000000
   15      C      -1.0580000000    -1.9380000000     0.1410000000
   16      H      -1.3830000000    -2.9780000000     0.1910000000
   17      N       0.2570000000    -1.7410000000     0.1030000000
   18      C       0.5450000000    -0.4320000000     0.0390000000
 ----------------------------------------------------------------

    9    -503.5495887688      4.98e-06  Convergence criterion met
 Total energy in the final basis set =     -503.5495887688

                    Orbital Energies (a.u.)
 --------------------------------------------------------------

 Alpha MOs
 -- Occupied --
-15.6305 -15.5836 -15.5657 -15.5556 -15.5481 -11.3350 -11.3156 -11.3092
-11.3078 -11.2838 -11.2464  -1.3653  -1.2956  -1.2420  -1.1944  -1.1491
 -1.0306  -0.9795  -0.8867  -0.8683  -0.8013  -0.7536  -0.7228  -0.6820
 -0.6731  -0.6598  -0.6228  -0.6025  -0.5919  -0.5884  -0.5671  -0.5328
 -0.4903  -0.4820  -0.4426  -0.4049  -0.4028  -0.3589  -0.3018

         Ground-State ChElPG Net Atomic Charges

     Atom                 Charge (a.u.)
  ----------------------------------------
      1 H                     0.126173
      2 C                    -0.155211
      3 H                     0.077728
      4 H                     0.081488
      5 N                    -0.028597
      6 C                     0.106189
      7 H                     0.162191
      8 N                    -0.533572
      9 C                    -0.085892
     10 C                     0.853956
     11 N                    -1.001352
     12 H                     0.433324
     13 H                     0.429179
     14 N                    -0.801463
     15 C                     0.549473
     16 H                     0.071773
     17 N                    -0.729461
     18 C                     0.444074
  ----------------------------------------
  Sum of atomic charges =     0.000000

                    Cartesian Multipole Moments
 -----------------------------------------------------------------
    Charge (ESU x 10^10)
                 0.0000
    Dipole Moment (Debye)
         X       2.1609      Y       1.3351      Z      -0.4895
       Tot       2.5868
    Quadrupole Moments (Debye-Ang)
        XX     -47.4271     XY      -2.6442     YY     -65.2305
        XZ       0.9288     YZ      -0.5479     ZZ     -65.6520

 Total job time:  8.41s(wall), 31.31s(cpu)
        *  Thank you very much for using Q-Chem.  Have a nice day.  *
